<VTKFile type="PolyData" version="0.1" byte_order="LittleEndian">
  <PolyData>
    <FieldData>
      <DataArray type="Float64" Name="RelativeDistanceBtoA" NumberOfTuples="1" format="ascii" RangeMin="4.2189692352" RangeMax="4.2189692352">
        4.2189692352
      </DataArray>
      <DataArray type="Float64" Name="HausdorffDistance" NumberOfTuples="1" format="ascii" RangeMin="4.2189692352" RangeMax="4.2189692352">
        4.2189692352
      </DataArray>
    </FieldData>
    <Piece NumberOfPoints="3840" NumberOfVerts="0" NumberOfLines="0" NumberOfStrips="0" NumberOfPolys="7676">
      <PointData Normals="Normals">
        <DataArray type="Float32" Name="Normals" NumberOfComponents="3" format="ascii" RangeMin="0.99999998205" RangeMax="1.0000000364">
          -0.40824830532 -0.40824830532 -0.81649661064 -0 -0.44721359015 -0.89442718029
          -0 -0.44721359015 -0.89442718029 0.40824830532 -0.40824830532 -0.81649661064
          -0.40824830532 -0.40824830532 -0.81649661064 -0 -0.44721359015 -0.89442718029
          -0 -0 -1 -0 -0 -1
          -0 -0 -1 -0 -0 -1
          0.40824830532 -0.40824830532 -0.81649661064 -0.44721359015 -0 -0.89442718029
          -0 -0 -1 -0 -0 -1
          -0 -0 -1 -0 -0 -1
          -0 -0 -1 -0 -0 -1
          0.40824830532 -0.40824830532 -0.81649661064 -0.40824830532 -0.40824830532 -0.81649661064
          -0 -0 -1 -0 -0 -1
          -0 -0 -1 -0 -0 -1
          -0 -0 -1 -0 -0 -1
          -0 -0 -1 -0 -0 -1
          0.40824830532 -0.40824830532 -0.81649661064 -0.44721359015 -0 -0.89442718029
          -0 -0 -1 -0 -0 -1
          -0 -0 -1 -0 -0 -1
          -0 -0 -1 -0 -0 -1
          -0 -0 -1 -0 -0 -1
          0.44721359015 -0 -0.89442718029 -0.44721359015 -0 -0.89442718029
          -0 -0 -1 -0 -0 -1
          -0 -0 -1 -0 -0 -1
          -0 -0 -1 -0 -0 -1
          -0 -0 -1 -0 -0 -1
          0.44721359015 -0 -0.89442718029 -0.40824830532 0.40824830532 -0.81649661064
          -0 -0 -1 -0 -0 -1
          -0 -0 -1 -0 -0 -1
          -0 -0 -1 -0 -0 -1
          -0 -0 -1 -0 -0 -1
          0.40824830532 0.40824830532 -0.81649661064 -0.40824830532 0.40824830532 -0.81649661064
          -0 -0 -1 -0 -0 -1
          -0 -0 -1 -0 -0 -1
          -0 -0 -1 -0 -0 -1
          0.40824830532 0.40824830532 -0.81649661064 -0.40824830532 0.40824830532 -0.81649661064
          -0 -0 -1 -0 -0 -1
          -0 -0 -1 -0 -0 -1
          0.40824830532 0.40824830532 -0.81649661064 -0.40824830532 0.40824830532 -0.81649661064
          -0 0.44721359015 -0.89442718029 -0 0.44721359015 -0.89442718029
          0.40824830532 0.40824830532 -0.81649661064 -0.40824830532 -0.40824830532 -0.81649661064
          -0 -0.44721359015 -0.89442718029 -0 -0.44721359015 -0.89442718029
          -0 -0.44721359015 -0.89442718029 -0 -0.44721359015 -0.89442718029
          0.40824830532 -0.40824830532 -0.81649661064 -0.40824830532 -0.40824830532 -0.81649661064
          -0 -0.44721359015 -0.89442718029 -0 -0 -1
          -0.33333334327 -0.66666668653 -0.66666668653 -0 -0.44721359015 -0.89442718029
          -0 -0.70710676908 -0.70710676908 -0 -0.44721359015 -0.89442718029
          -0 -0.70710676908 -0.70710676908 -0 -0.44721359015 -0.89442718029
          0.33333334327 -0.66666668653 -0.66666668653 -0 -0.44721359015 -0.89442718029
          -0 -0 -1 0.40824830532 -0.40824830532 -0.81649661064
          -0.40824830532 -0.40824830532 -0.81649661064 -0 -0 -1
          -0.33333334327 -0.66666668653 -0.66666668653 -0 -0.44721359015 -0.89442718029
          -0.57735025883 -0.57735025883 -0.57735025883 -0.33333334327 -0.66666668653 -0.66666668653
          -0.40824830532 -0.40824830532 -0.81649661064 0.57735025883 -0.57735025883 -0.57735025883
          0.57735025883 -0.57735025883 -0.57735025883 0.40824830532 -0.40824830532 -0.81649661064
          -0 -0 -1 0.40824830532 -0.40824830532 -0.81649661064
          -0.44721359015 -0 -0.89442718029 -0.66666668653 -0.33333334327 -0.66666668653
          -0.44721359015 -0 -0.89442718029 0.57735025883 -0.57735025883 -0.57735025883
          0.57735025883 -0.57735025883 -0.57735025883 0.40824830532 -0.40824830532 -0.81649661064
          -0 -0 -1 0.40824830532 -0.40824830532 -0.81649661064
          -0.40824830532 -0.40824830532 -0.81649661064 -0 -0 -1
          -0.66666668653 -0.33333334327 -0.66666668653 -0.57735025883 -0.57735025883 -0.57735025883
          -0.40824830532 -0.40824830532 -0.81649661064 0.57735025883 -0.57735025883 -0.57735025883
          0.57735025883 -0.57735025883 -0.57735025883 0.40824830532 -0.40824830532 -0.81649661064
          -0 -0 -1 0.40824830532 -0.40824830532 -0.81649661064
          -0.44721359015 -0 -0.89442718029 -0.66666668653 -0.33333334327 -0.66666668653
          -0.44721359015 -0 -0.89442718029 0.66666668653 -0.33333334327 -0.66666668653
          0.44721359015 -0 -0.89442718029 0.44721359015 -0 -0.89442718029
          -0.44721359015 -0 -0.89442718029 -0.70710676908 -0 -0.70710676908
          -0.44721359015 -0 -0.89442718029 0.70710676908 -0 -0.70710676908
          0.44721359015 -0 -0.89442718029 0.44721359015 -0 -0.89442718029
          -0.44721359015 -0 -0.89442718029 -0.70710676908 -0 -0.70710676908
          -0.44721359015 -0 -0.89442718029 0.70710676908 -0 -0.70710676908
          0.44721359015 -0 -0.89442718029 0.44721359015 -0 -0.89442718029
          -0.44721359015 -0 -0.89442718029 -0.66666668653 0.33333334327 -0.66666668653
          -0.44721359015 -0 -0.89442718029 -0.57735025883 0.57735025883 -0.57735025883
          0.66666668653 0.33333334327 -0.66666668653 0.57735025883 0.57735025883 -0.57735025883
          0.44721359015 -0 -0.89442718029 0.40824830532 0.40824830532 -0.81649661064
          -0.40824830532 0.40824830532 -0.81649661064 -0 -0 -1
          -0.57735025883 0.57735025883 -0.57735025883 -0.40824830532 0.40824830532 -0.81649661064
          -0.57735025883 0.57735025883 -0.57735025883 0.57735025883 0.57735025883 -0.57735025883
          0.57735025883 0.57735025883 -0.57735025883 0.40824830532 0.40824830532 -0.81649661064
          0.44721359015 -0 -0.89442718029 -0.40824830532 0.40824830532 -0.81649661064
          -0 -0 -1 -0.57735025883 0.57735025883 -0.57735025883
          -0.40824830532 0.40824830532 -0.81649661064 -0.57735025883 0.57735025883 -0.57735025883
          0.57735025883 0.57735025883 -0.57735025883 0.57735025883 0.57735025883 -0.57735025883
          0.40824830532 0.40824830532 -0.81649661064 -0 -0 -1
          0.40824830532 0.40824830532 -0.81649661064 -0.40824830532 0.40824830532 -0.81649661064
          -0 -0 -1 -0.57735025883 0.57735025883 -0.57735025883
          -0.40824830532 0.40824830532 -0.81649661064 -0.33333334327 0.66666668653 -0.66666668653
          -0 0.70710676908 -0.70710676908 -0 0.70710676908 -0.70710676908
          0.57735025883 0.57735025883 -0.57735025883 0.33333334327 0.66666668653 -0.66666668653
          0.40824830532 0.40824830532 -0.81649661064 -0 -0 -1
          0.40824830532 0.40824830532 -0.81649661064 -0.40824830532 0.40824830532 -0.81649661064
          -0 -0 -1 -0 0.44721359015 -0.89442718029
          -0 0.44721359015 -0.89442718029 -0 0.44721359015 -0.89442718029
          -0 0.44721359015 -0.89442718029 -0 0.44721359015 -0.89442718029
          0.40824830532 0.40824830532 -0.81649661064 -0.40824830532 0.40824830532 -0.81649661064
          -0 0.44721359015 -0.89442718029 -0 0.44721359015 -0.89442718029
          -0 0.44721359015 -0.89442718029 0.40824830532 0.40824830532 -0.81649661064
          -0.40824830532 -0.40824830532 -0.81649661064 -0 -0.44721359015 -0.89442718029
          0.40824830532 -0.40824830532 -0.81649661064 -0.40824830532 -0.40824830532 -0.81649661064
          -0.33333334327 -0.66666668653 -0.66666668653 -0 -0.70710676908 -0.70710676908
          -0 -0.70710676908 -0.70710676908 -0 -0.44721359015 -0.89442718029
          -0 -0.70710676908 -0.70710676908 -0 -0.44721359015 -0.89442718029
          -0 -0.70710676908 -0.70710676908 -0 -0.44721359015 -0.89442718029
          -0 -0.70710676908 -0.70710676908 -0 -0.70710676908 -0.70710676908
          0.33333334327 -0.66666668653 -0.66666668653 -0 -0.70710676908 -0.70710676908
          0.40824830532 -0.40824830532 -0.81649661064 -0.40824830532 -0.40824830532 -0.81649661064
          -0.33333334327 -0.66666668653 -0.66666668653 -0 -0.70710676908 -0.70710676908
          -0.57735025883 -0.57735025883 -0.57735025883 -0.33333334327 -0.66666668653 -0.66666668653
          -0.40824830532 -0.40824830532 -0.81649661064 0.57735025883 -0.57735025883 -0.57735025883
          0.57735025883 -0.57735025883 -0.57735025883 0.40824830532 -0.40824830532 -0.81649661064
          -0 -0.44721359015 -0.89442718029 0.40824830532 -0.40824830532 -0.81649661064
          -0.40824830532 -0.40824830532 -0.81649661064 -0.57735025883 -0.57735025883 -0.57735025883
          -0.57735025883 -0.57735025883 -0.57735025883 -0.40824830532 -0.40824830532 -0.81649661064
          0.57735025883 -0.57735025883 -0.57735025883 0.57735025883 -0.57735025883 -0.57735025883
          0.40824830532 -0.40824830532 -0.81649661064 -0 -0 -1
          0.40824830532 -0.40824830532 -0.81649661064 -0.66666668653 -0.33333334327 -0.66666668653
          -0.70710676908 -0 -0.70710676908 0.57735025883 -0.57735025883 -0.57735025883
          0.57735025883 -0.57735025883 -0.57735025883 0.40824830532 -0.40824830532 -0.81649661064
          0.44721359015 -0 -0.89442718029 -0.40824830532 -0.40824830532 -0.81649661064
          -0.66666668653 -0.33333334327 -0.66666668653 -0.57735025883 -0.57735025883 -0.57735025883
          -0.40824830532 -0.40824830532 -0.81649661064 0.57735025883 -0.57735025883 -0.57735025883
          0.57735025883 -0.57735025883 -0.57735025883 0.40824830532 -0.40824830532 -0.81649661064
          0.40824830532 -0.40824830532 -0.81649661064 -0.66666668653 -0.33333334327 -0.66666668653
          -0.70710676908 -0 -0.70710676908 0.66666668653 -0.33333334327 -0.66666668653
          0.70710676908 -0 -0.70710676908 -0.40824830532 -0.40824830532 -0.81649661064
          -0.70710676908 -0 -0.70710676908 -0.44721359015 -0 -0.89442718029
          0.70710676908 -0 -0.70710676908 0.70710676908 -0 -0.70710676908
          -0.44721359015 -0 -0.89442718029 -0.70710676908 -0 -0.70710676908
          -0.44721359015 -0 -0.89442718029 0.70710676908 -0 -0.70710676908
          0.70710676908 -0 -0.70710676908 -0.40824830532 0.40824830532 -0.81649661064
          -0.70710676908 -0 -0.70710676908 -0.44721359015 -0 -0.89442718029
          0.70710676908 -0 -0.70710676908 0.70710676908 -0 -0.70710676908
          -0.70710676908 -0 -0.70710676908 -0.70710676908 -0 -0.70710676908
          0.66666668653 0.33333334327 -0.66666668653 0.57735025883 0.57735025883 -0.57735025883
          0.70710676908 -0 -0.70710676908 -0.66666668653 0.33333334327 -0.66666668653
          -0.70710676908 -0 -0.70710676908 -0.57735025883 0.57735025883 -0.57735025883
          0.66666668653 0.33333334327 -0.66666668653 0.40824830532 0.40824830532 -0.81649661064
          0.44721359015 -0 -0.89442718029 -0.40824830532 0.40824830532 -0.81649661064
          -0.57735025883 0.57735025883 -0.57735025883 -0.40824830532 0.40824830532 -0.81649661064
          -0.57735025883 0.57735025883 -0.57735025883 0.66666668653 0.33333334327 -0.66666668653
          0.57735025883 0.57735025883 -0.57735025883 0.44721359015 -0 -0.89442718029
          0.40824830532 0.40824830532 -0.81649661064 -0.44721359015 -0 -0.89442718029
          -0.57735025883 0.57735025883 -0.57735025883 -0.40824830532 0.40824830532 -0.81649661064
          -0.57735025883 0.57735025883 -0.57735025883 0.57735025883 0.57735025883 -0.57735025883
          0.57735025883 0.57735025883 -0.57735025883 0.40824830532 0.40824830532 -0.81649661064
          0.40824830532 0.40824830532 -0.81649661064 -0.40824830532 0.40824830532 -0.81649661064
          -0 -0 -1 -0.57735025883 0.57735025883 -0.57735025883
          -0.40824830532 0.40824830532 -0.81649661064 -0.57735025883 0.57735025883 -0.57735025883
          0.33333334327 0.66666668653 -0.66666668653 0.57735025883 0.57735025883 -0.57735025883
          0.33333334327 0.66666668653 -0.66666668653 0.40824830532 0.40824830532 -0.81649661064
          0.40824830532 0.40824830532 -0.81649661064 -0.40824830532 0.40824830532 -0.81649661064
          -0 0.44721359015 -0.89442718029 -0.57735025883 0.57735025883 -0.57735025883
          -0.40824830532 0.40824830532 -0.81649661064 -0.33333334327 0.66666668653 -0.66666668653
          -0 0.70710676908 -0.70710676908 -0 0.70710676908 -0.70710676908
          -0 0.70710676908 -0.70710676908 0.57735025883 0.57735025883 -0.57735025883
          0.33333334327 0.66666668653 -0.66666668653 0.40824830532 0.40824830532 -0.81649661064
          -0 0.44721359015 -0.89442718029 0.40824830532 0.40824830532 -0.81649661064
          -0.40824830532 0.40824830532 -0.81649661064 -0 0.70710676908 -0.70710676908
          -0 0.70710676908 -0.70710676908 -0 0.70710676908 -0.70710676908
          -0 0.70710676908 -0.70710676908 -0 0.70710676908 -0.70710676908
          -0 0.44721359015 -0.89442718029 0.40824830532 0.40824830532 -0.81649661064
          -0.40824830532 -0.40824830532 -0.81649661064 -0.33333334327 -0.66666668653 -0.66666668653
          -0 -0.70710676908 -0.70710676908 -0 -0.70710676908 -0.70710676908
          -0 -0.70710676908 -0.70710676908 0.33333334327 -0.66666668653 -0.66666668653
          -0 -0.70710676908 -0.70710676908 0.40824830532 -0.40824830532 -0.81649661064
          -0.40824830532 -0.40824830532 -0.81649661064 -0.33333334327 -0.66666668653 -0.66666668653
          -0 -0.70710676908 -0.70710676908 -0.57735025883 -0.57735025883 -0.57735025883
          -0.33333334327 -0.66666668653 -0.66666668653 -0.40824830532 -0.40824830532 -0.81649661064
          0.57735025883 -0.57735025883 -0.57735025883 0.33333334327 -0.66666668653 -0.66666668653
          0.40824830532 -0.40824830532 -0.81649661064 -0 -0.70710676908 -0.70710676908
          -0 -0.70710676908 -0.70710676908 0.33333334327 -0.66666668653 -0.66666668653
          -0 -0.70710676908 -0.70710676908 0.40824830532 -0.40824830532 -0.81649661064
          -0.33333334327 -0.66666668653 -0.66666668653 -0.33333334327 -0.66666668653 -0.66666668653
          -0.57735025883 -0.57735025883 -0.57735025883 -0.33333334327 -0.66666668653 -0.66666668653
          -0.40824830532 -0.40824830532 -0.81649661064 0.57735025883 -0.57735025883 -0.57735025883
          0.33333334327 -0.66666668653 -0.66666668653 0.40824830532 -0.40824830532 -0.81649661064
          0.33333334327 -0.66666668653 -0.66666668653 0.33333334327 -0.66666668653 -0.66666668653
          -0.57735025883 -0.57735025883 -0.57735025883 -0.57735025883 -0.57735025883 -0.57735025883
          -0.57735025883 -0.57735025883 -0.57735025883 0.57735025883 -0.57735025883 -0.57735025883
          0.57735025883 -0.57735025883 -0.57735025883 0.57735025883 -0.57735025883 -0.57735025883
          -0.66666668653 -0.33333334327 -0.66666668653 -0.66666668653 -0.33333334327 -0.66666668653
          0.66666668653 -0.33333334327 -0.66666668653 0.66666668653 -0.33333334327 -0.66666668653
          -0.40824830532 -0.40824830532 -0.81649661064 -0.66666668653 -0.33333334327 -0.66666668653
          -0.57735025883 -0.57735025883 -0.57735025883 -0.40824830532 -0.40824830532 -0.81649661064
          0.66666668653 -0.33333334327 -0.66666668653 0.57735025883 -0.57735025883 -0.57735025883
          0.40824830532 -0.40824830532 -0.81649661064 0.40824830532 -0.40824830532 -0.81649661064
          -0.66666668653 -0.33333334327 -0.66666668653 -0.70710676908 -0 -0.70710676908
          0.66666668653 -0.33333334327 -0.66666668653 0.70710676908 -0 -0.70710676908
          -0.40824830532 -0.40824830532 -0.81649661064 -0.66666668653 -0.33333334327 -0.66666668653
          -0.57735025883 -0.57735025883 -0.57735025883 -0.40824830532 -0.40824830532 -0.81649661064
          0.70710676908 -0 -0.70710676908 0.70710676908 -0 -0.70710676908
          -0.66666668653 -0.33333334327 -0.66666668653 -0.70710676908 -0 -0.70710676908
          0.70710676908 -0 -0.70710676908 0.44721359015 -0 -0.89442718029
          0.40824830532 -0.40824830532 -0.81649661064 -0.70710676908 -0 -0.70710676908
          -0.70710676908 -0 -0.70710676908 0.70710676908 -0 -0.70710676908
          0.44721359015 -0 -0.89442718029 0.44721359015 -0 -0.89442718029
          -0.66666668653 0.33333334327 -0.66666668653 -0.70710676908 -0 -0.70710676908
          -0.57735025883 0.57735025883 -0.57735025883 0.70710676908 -0 -0.70710676908
          0.44721359015 -0 -0.89442718029 0.44721359015 -0 -0.89442718029
          -0.40824830532 0.40824830532 -0.81649661064 -0.66666668653 0.33333334327 -0.66666668653
          -0.40824830532 0.40824830532 -0.81649661064 0.70710676908 -0 -0.70710676908
          0.44721359015 -0 -0.89442718029 0.40824830532 0.40824830532 -0.81649661064
          -0.70710676908 -0 -0.70710676908 -0.70710676908 -0 -0.70710676908
          0.70710676908 -0 -0.70710676908 0.70710676908 -0 -0.70710676908
          -0.66666668653 0.33333334327 -0.66666668653 -0.70710676908 -0 -0.70710676908
          -0.57735025883 0.57735025883 -0.57735025883 0.66666668653 0.33333334327 -0.66666668653
          0.57735025883 0.57735025883 -0.57735025883 0.70710676908 -0 -0.70710676908
          -0.40824830532 0.40824830532 -0.81649661064 -0.66666668653 0.33333334327 -0.66666668653
          -0.40824830532 0.40824830532 -0.81649661064 0.57735025883 0.57735025883 -0.57735025883
          0.57735025883 0.57735025883 -0.57735025883 0.40824830532 0.40824830532 -0.81649661064
          0.40824830532 0.40824830532 -0.81649661064 -0.66666668653 0.33333334327 -0.66666668653
          -0.66666668653 0.33333334327 -0.66666668653 -0.57735025883 0.57735025883 -0.57735025883
          0.57735025883 0.57735025883 -0.57735025883 0.57735025883 0.57735025883 -0.57735025883
          0.40824830532 0.40824830532 -0.81649661064 0.40824830532 0.40824830532 -0.81649661064
          -0.57735025883 0.57735025883 -0.57735025883 -0.57735025883 0.57735025883 -0.57735025883
          -0.33333334327 0.66666668653 -0.66666668653 -0.33333334327 0.66666668653 -0.66666668653
          0.57735025883 0.57735025883 -0.57735025883 0.57735025883 0.57735025883 -0.57735025883
          0.40824830532 0.40824830532 -0.81649661064 0.40824830532 0.40824830532 -0.81649661064
          -0.33333334327 0.66666668653 -0.66666668653 -0.57735025883 0.57735025883 -0.57735025883
          -0.40824830532 0.40824830532 -0.81649661064 -0.33333334327 0.66666668653 -0.66666668653
          -0 0.70710676908 -0.70710676908 -0 0.70710676908 -0.70710676908
          -0 0.70710676908 -0.70710676908 -0 0.70710676908 -0.70710676908
          -0 0.70710676908 -0.70710676908 -0 0.70710676908 -0.70710676908
          0.57735025883 0.57735025883 -0.57735025883 0.33333334327 0.66666668653 -0.66666668653
          0.40824830532 0.40824830532 -0.81649661064 0.40824830532 0.40824830532 -0.81649661064
          -0.40824830532 0.40824830532 -0.81649661064 -0 0.70710676908 -0.70710676908
          -0 0.70710676908 -0.70710676908 -0 0.44721359015 -0.89442718029
          -0 0.44721359015 -0.89442718029 -0 0.44721359015 -0.89442718029
          -0 0.44721359015 -0.89442718029 -0 0.70710676908 -0.70710676908
          -0 0.70710676908 -0.70710676908 0.40824830532 0.40824830532 -0.81649661064
          -0.40824830532 0.40824830532 -0.81649661064 -0 0.44721359015 -0.89442718029
          -0 0.44721359015 -0.89442718029 0.40824830532 0.40824830532 -0.81649661064
          -0.33333334327 -0.66666668653 -0.66666668653 -0.33333334327 -0.66666668653 -0.66666668653
          -0 -0.70710676908 -0.70710676908 -0 -0.70710676908 -0.70710676908
          -0 -0.70710676908 -0.70710676908 -0 -0.70710676908 -0.70710676908
          -0 -0.70710676908 -0.70710676908 -0 -0.70710676908 -0.70710676908
          0.33333334327 -0.66666668653 -0.66666668653 0.33333334327 -0.66666668653 -0.66666668653
          -0.33333334327 -0.66666668653 -0.66666668653 -0.33333334327 -0.66666668653 -0.66666668653
          -0.57735025883 -0.57735025883 -0.57735025883 -0.33333334327 -0.66666668653 -0.66666668653
          -0.33333334327 -0.66666668653 -0.66666668653 0.57735025883 -0.57735025883 -0.57735025883
          0.33333334327 -0.66666668653 -0.66666668653 0.33333334327 -0.66666668653 -0.66666668653
          -0 -0.70710676908 -0.70710676908 -0 -0.70710676908 -0.70710676908
          0.33333334327 -0.66666668653 -0.66666668653 0.33333334327 -0.66666668653 -0.66666668653
          -0.40824830532 -0.40824830532 -0.81649661064 -0.57735025883 -0.57735025883 -0.57735025883
          -0.57735025883 -0.57735025883 -0.57735025883 -0.33333334327 -0.66666668653 -0.66666668653
          0.57735025883 -0.57735025883 -0.57735025883 0.57735025883 -0.57735025883 -0.57735025883
          0.33333334327 -0.66666668653 -0.66666668653 0.40824830532 -0.40824830532 -0.81649661064
          -0.40824830532 -0.40824830532 -0.81649661064 -0.57735025883 -0.57735025883 -0.57735025883
          -0.57735025883 -0.57735025883 -0.57735025883 -0.40824830532 -0.40824830532 -0.81649661064
          0.57735025883 -0.57735025883 -0.57735025883 0.57735025883 -0.57735025883 -0.57735025883
          0.40824830532 -0.40824830532 -0.81649661064 0.40824830532 -0.40824830532 -0.81649661064
          -0.40824830532 -0.40824830532 -0.81649661064 -0.57735025883 -0.57735025883 -0.57735025883
          -0.57735025883 -0.57735025883 -0.57735025883 -0.40824830532 -0.40824830532 -0.81649661064
          0.57735025883 -0.57735025883 -0.57735025883 0.57735025883 -0.57735025883 -0.57735025883
          0.40824830532 -0.40824830532 -0.81649661064 0.40824830532 -0.40824830532 -0.81649661064
          -0.57735025883 -0.57735025883 -0.57735025883 -0.57735025883 -0.57735025883 -0.57735025883
          -0.66666668653 -0.33333334327 -0.66666668653 0.57735025883 -0.57735025883 -0.57735025883
          0.57735025883 -0.57735025883 -0.57735025883 0.66666668653 -0.33333334327 -0.66666668653
          -0.66666668653 -0.33333334327 -0.66666668653 -0.66666668653 -0.33333334327 -0.66666668653
          0.66666668653 -0.33333334327 -0.66666668653 0.66666668653 -0.33333334327 -0.66666668653
          -0.66666668653 -0.33333334327 -0.66666668653 -0.57735025883 -0.57735025883 -0.57735025883
          -0.66666668653 -0.33333334327 -0.66666668653 0.70710676908 -0 -0.70710676908
          0.70710676908 -0 -0.70710676908 -0.66666668653 -0.33333334327 -0.66666668653
          -0.66666668653 -0.33333334327 -0.66666668653 0.66666668653 -0.33333334327 -0.66666668653
          0.57735025883 -0.57735025883 -0.57735025883 0.66666668653 -0.33333334327 -0.66666668653
          -0.70710676908 -0 -0.70710676908 -0.70710676908 -0 -0.70710676908
          0.66666668653 -0.33333334327 -0.66666668653 0.66666668653 -0.33333334327 -0.66666668653
          -0.70710676908 -0 -0.70710676908 -0.70710676908 -0 -0.70710676908
          0.70710676908 -0 -0.70710676908 0.70710676908 -0 -0.70710676908
          -0.70710676908 -0 -0.70710676908 -0.70710676908 -0 -0.70710676908
          0.70710676908 -0 -0.70710676908 0.70710676908 -0 -0.70710676908
          -0.66666668653 0.33333334327 -0.66666668653 -0.66666668653 0.33333334327 -0.66666668653
          -0.57735025883 0.57735025883 -0.57735025883 0.66666668653 0.33333334327 -0.66666668653
          0.57735025883 0.57735025883 -0.57735025883 0.66666668653 0.33333334327 -0.66666668653
          -0.66666668653 0.33333334327 -0.66666668653 -0.66666668653 0.33333334327 -0.66666668653
          0.66666668653 0.33333334327 -0.66666668653 0.66666668653 0.33333334327 -0.66666668653
          -0.70710676908 -0 -0.70710676908 -0.70710676908 -0 -0.70710676908
          0.70710676908 -0 -0.70710676908 0.70710676908 -0 -0.70710676908
          -0.66666668653 0.33333334327 -0.66666668653 -0.66666668653 0.33333334327 -0.66666668653
          -0.57735025883 0.57735025883 -0.57735025883 0.66666668653 0.33333334327 -0.66666668653
          0.57735025883 0.57735025883 -0.57735025883 0.66666668653 0.33333334327 -0.66666668653
          -0.57735025883 0.57735025883 -0.57735025883 -0.66666668653 0.33333334327 -0.66666668653
          -0.57735025883 0.57735025883 -0.57735025883 0.57735025883 0.57735025883 -0.57735025883
          0.57735025883 0.57735025883 -0.57735025883 0.57735025883 0.57735025883 -0.57735025883
          -0.40824830532 0.40824830532 -0.81649661064 -0.57735025883 0.57735025883 -0.57735025883
          -0.40824830532 0.40824830532 -0.81649661064 -0.57735025883 0.57735025883 -0.57735025883
          0.57735025883 0.57735025883 -0.57735025883 0.57735025883 0.57735025883 -0.57735025883
          0.66666668653 0.33333334327 -0.66666668653 -0.40824830532 0.40824830532 -0.81649661064
          -0.57735025883 0.57735025883 -0.57735025883 -0.40824830532 0.40824830532 -0.81649661064
          -0.57735025883 0.57735025883 -0.57735025883 0.57735025883 0.57735025883 -0.57735025883
          0.57735025883 0.57735025883 -0.57735025883 0.33333334327 0.66666668653 -0.66666668653
          0.40824830532 0.40824830532 -0.81649661064 -0.40824830532 0.40824830532 -0.81649661064
          -0.57735025883 0.57735025883 -0.57735025883 -0.33333334327 0.66666668653 -0.66666668653
          -0.33333334327 0.66666668653 -0.66666668653 -0 0.70710676908 -0.70710676908
          -0.33333334327 0.66666668653 -0.66666668653 0.33333334327 0.66666668653 -0.66666668653
          -0 0.70710676908 -0.70710676908 0.57735025883 0.57735025883 -0.57735025883
          0.33333334327 0.66666668653 -0.66666668653 0.57735025883 0.57735025883 -0.57735025883
          -0.33333334327 0.66666668653 -0.66666668653 -0 0.70710676908 -0.70710676908
          -0.57735025883 0.57735025883 -0.57735025883 -0.33333334327 0.66666668653 -0.66666668653
          -0.33333334327 0.66666668653 -0.66666668653 -0 0.70710676908 -0.70710676908
          -0 0.70710676908 -0.70710676908 0.57735025883 0.57735025883 -0.57735025883
          0.33333334327 0.66666668653 -0.66666668653 0.33333334327 0.66666668653 -0.66666668653
          -0 0.70710676908 -0.70710676908 0.33333334327 0.66666668653 -0.66666668653
          -0.33333334327 0.66666668653 -0.66666668653 -0 0.70710676908 -0.70710676908
          -0 0.70710676908 -0.70710676908 0.33333334327 0.66666668653 -0.66666668653
          -0.40824830532 -0.81649661064 -0.40824830532 -0 -0.70710676908 -0.70710676908
          -0.33333334327 -0.66666668653 -0.66666668653 -0 -0.70710676908 -0.70710676908
          -0 -0.70710676908 -0.70710676908 -0 -0.70710676908 -0.70710676908
          0.33333334327 -0.66666668653 -0.66666668653 0.40824830532 -0.81649661064 -0.40824830532
          -0.33333334327 -0.66666668653 -0.66666668653 -0.33333334327 -0.66666668653 -0.66666668653
          -0.57735025883 -0.57735025883 -0.57735025883 -0.33333334327 -0.66666668653 -0.66666668653
          -0.33333334327 -0.66666668653 -0.66666668653 0.57735025883 -0.57735025883 -0.57735025883
          0.33333334327 -0.66666668653 -0.66666668653 0.33333334327 -0.66666668653 -0.66666668653
          -0 -0.70710676908 -0.70710676908 -0 -0.70710676908 -0.70710676908
          0.33333334327 -0.66666668653 -0.66666668653 0.33333334327 -0.66666668653 -0.66666668653
          -0.33333334327 -0.66666668653 -0.66666668653 -0.33333334327 -0.66666668653 -0.66666668653
          -0.57735025883 -0.57735025883 -0.57735025883 -0.33333334327 -0.66666668653 -0.66666668653
          -0.33333334327 -0.66666668653 -0.66666668653 0.57735025883 -0.57735025883 -0.57735025883
          0.33333334327 -0.66666668653 -0.66666668653 0.33333334327 -0.66666668653 -0.66666668653
          0.33333334327 -0.66666668653 -0.66666668653 0.33333334327 -0.66666668653 -0.66666668653
          -0.57735025883 -0.57735025883 -0.57735025883 -0.57735025883 -0.57735025883 -0.57735025883
          -0.57735025883 -0.57735025883 -0.57735025883 0.57735025883 -0.57735025883 -0.57735025883
          0.57735025883 -0.57735025883 -0.57735025883 0.57735025883 -0.57735025883 -0.57735025883
          -0.57735025883 -0.57735025883 -0.57735025883 -0.57735025883 -0.57735025883 -0.57735025883
          -0.57735025883 -0.57735025883 -0.57735025883 0.57735025883 -0.57735025883 -0.57735025883
          0.57735025883 -0.57735025883 -0.57735025883 0.57735025883 -0.57735025883 -0.57735025883
          -0.66666668653 -0.33333334327 -0.66666668653 -0.66666668653 -0.33333334327 -0.66666668653
          0.66666668653 -0.33333334327 -0.66666668653 0.66666668653 -0.33333334327 -0.66666668653
          -0.66666668653 -0.33333334327 -0.66666668653 -0.57735025883 -0.57735025883 -0.57735025883
          -0.66666668653 -0.33333334327 -0.66666668653 0.66666668653 -0.33333334327 -0.66666668653
          0.57735025883 -0.57735025883 -0.57735025883 0.66666668653 -0.33333334327 -0.66666668653
          -0.66666668653 -0.33333334327 -0.66666668653 -0.66666668653 -0.33333334327 -0.66666668653
          0.66666668653 -0.33333334327 -0.66666668653 0.66666668653 -0.33333334327 -0.66666668653
          -0.66666668653 -0.33333334327 -0.66666668653 -0.57735025883 -0.57735025883 -0.57735025883
          -0.66666668653 -0.33333334327 -0.66666668653 0.70710676908 -0 -0.70710676908
          0.70710676908 -0 -0.70710676908 -0.81649661064 -0.40824830532 -0.40824830532
          0.66666668653 -0.33333334327 -0.66666668653 0.57735025883 -0.57735025883 -0.57735025883
          0.66666668653 -0.33333334327 -0.66666668653 -0.70710676908 -0 -0.70710676908
          -0.66666668653 -0.33333334327 -0.66666668653 0.81649661064 -0.40824830532 -0.40824830532
          -0.70710676908 -0 -0.70710676908 -0.70710676908 -0 -0.70710676908
          0.89442718029 -0 -0.44721359015 -0.70710676908 -0 -0.70710676908
          -0.66666668653 0.33333334327 -0.66666668653 0.89442718029 -0 -0.44721359015
          -0.81649661064 0.40824830532 -0.40824830532 -0.57735025883 0.57735025883 -0.57735025883
          0.81649661064 0.40824830532 -0.40824830532 0.57735025883 0.57735025883 -0.57735025883