<VTKFile type="PolyData" version="0.1" byte_order="LittleEndian">
  <PolyData>
    <FieldData>
      <DataArray type="Float64" Name="RelativeDistanceAtoB" NumberOfTuples="1" format="ascii" RangeMin="3.703338623" RangeMax="3.703338623">
        3.703338623
      </DataArray>
      <DataArray type="Float64" Name="HausdorffDistance" NumberOfTuples="1" format="ascii" RangeMin="4.2189692352" RangeMax="4.2189692352">
        4.2189692352
      </DataArray>
    </FieldData>
    <Piece NumberOfPoints="6242" NumberOfVerts="0" NumberOfLines="0" NumberOfStrips="0" NumberOfPolys="12480">
      <PointData Normals="Normals">
        <DataArray type="Float32" Name="Normals" NumberOfComponents="3" format="ascii" RangeMin="0.99999996213" RangeMax="1.000000042">
          0 0 1 0 0 -1
          0.039756517857 0 0.99920940399 0.079450167716 0 0.99683886766
          0.11901819706 0 0.99289208651 0.15839803219 0 0.987375319
          0.1975274086 0 0.98029738665 0.23634444177 0 0.97166931629
          0.27478778362 0 0.96150487661 0.31279662251 0 0.94982010126
          0.35031086206 0 0.93663346767 0.38727119565 0 0.92196583748
          0.42361915112 0 0.90584039688 0.45929729939 0 0.88828259706
          0.49424919486 0 0.8693202734 0.52841961384 0 0.84898334742
          0.5617544651 0 0.82730400562 0.59420102835 0 0.8043165803
          0.62570810318 0 0.78005731106 0.65622574091 0 0.7545645833
          0.68570578098 0 0.72787880898 0.71410161257 0 0.70004206896
          0.74136829376 0 0.67109841108 0.7674626708 0 0.64109361172
          0.79234355688 0 0.61007511616 0.81597161293 0 0.57809197903
          0.83830940723 0 0.54519474506 0.85932171345 0 0.51143544912
          0.87897521257 0 0.47686746716 0.89723885059 0 0.44154545665
          0.91408383846 0 0.40552529693 0.9294834137 0 0.36886388063
          0.9434133172 0 0.33161923289 0.95585149527 0 0.29385024309
          0.96677821875 0 0.25561660528 0.97617632151 0 0.21697877347
          0.98403090239 0 0.17799785733 0.99032944441 0 0.13873548806
          0.99506217241 0 0.099253758788 0.998221457 0 0.059615083039
          0.999802351 0 0.019882144406 0.999802351 0 -0.019882231951
          0.998221457 0 -0.05961516872 0.99506217241 0 -0.099253848195
          0.99032944441 0 -0.13873557746 0.98403084278 0 -0.17799794674
          0.97617632151 0 -0.21697886288 0.96677821875 0 -0.25561669469
          0.95585143566 0 -0.2938503325 0.9434132576 0 -0.3316193223
          0.9294834137 0 -0.36886397004 0.91408377886 0 -0.40552535653
          0.89723885059 0 -0.44154554605 0.87897515297 0 -0.47686755657
          0.85932165384 0 -0.51143550873 0.83830934763 0 -0.54519480467
          0.81597155333 0 -0.57809203863 0.79234349728 0 -0.61007517576
          0.7674626112 0 -0.64109367132 0.74136823416 0 -0.67109847069
          0.71410155296 0 -0.70004212856 0.68570572138 0 -0.72787886858
          0.6562256813 0 -0.75456464291 0.62570804358 0 -0.78005737066
          0.59420096874 0 -0.8043165803 0.56175434589 0 -0.82730406523
          0.52841949463 0 -0.84898340702 0.49424913526 0 -0.869320333
          0.45929720998 0 -0.88828265667 0.42361909151 0 -0.90584039688
          0.38727110624 0 -0.92196589708 0.35031077266 0 -0.93663352728
          0.31279653311 0 -0.94982016087 0.27478769422 0 -0.96150493622
          0.23634436727 0 -0.9716693759 0.19752731919 0 -0.98029738665
          0.15839794278 0 -0.98737537861 0.11901810765 0 -0.99289208651
          0.079450078309 0 -0.99683886766 0.03975642845 0 -0.99920940399
          0.039633959532 0.0031192603055 0.99920940399 0.07920525223 0.0062335887924 0.99683886766
          0.11865130067 0.0093380603939 0.99289208651 0.15790973604 0.012427766807 0.987375319
          0.19691848755 0.015497821383 0.98029738665 0.2356158793 0.018543371931 0.97166931629
          0.27394071221 0.02155960165 0.96150487661 0.31183236837 0.024541739374 0.94982010126
          0.34923097491 0.027485074475 0.93663346767 0.38607734442 0.030384948477 0.92196583748
          0.42231327295 0.033236775547 0.90584039688 0.45788145065 0.03603605181 0.88828259706
          0.49272558093 0.038778346032 0.8693202734 0.5267906785 0.041459325701 0.84898334742
          0.56002271175 0.044074747711 0.82730400562 0.59236931801 0.046620476991 0.8043165803
          0.62377923727 0.049092493951 0.78005731106 0.65420281887 0.051486883312 0.7545645833
          0.68359202147 0.053799860179 0.72787880898 0.71190029383 0.056027770042 0.70004206896
          0.73908287287 0.058167085052 0.67109841108 0.76509684324 0.060214430094 0.64109361172
          0.78990101814 0.062166560441 0.61007511616 0.81345623732 0.064020395279 0.57809197903
          0.83572518826 0.065773002803 0.54519474506 0.85667270422 0.067421607673 0.51143544912
          0.87626564503 0.068963602185 0.47686746716 0.89447295666 0.07039655 0.44154545665
          0.91126602888 0.071718193591 0.40552529693 0.92661815882 0.072926431894 0.36886388063
          0.94050508738 0.074019357562 0.33161923289 0.95290488005 0.074995242059 0.29385024309
          0.96379798651 0.075852550566 0.25561660528 0.97316712141 0.076589912176 0.21697877347
          0.9809974432 0.077206172049 0.17799785733 0.98727661371 0.077700354159 0.13873548806
          0.99199473858 0.078071676195 0.099253758788 0.99514424801 0.078319557011 0.059615083039
          0.99672025442 0.078443586826 0.019882144406 0.99672025442 0.078443586826 -0.019882231951
          0.99514424801 0.078319549561 -0.05961516872 0.99199467897 0.078071676195 -0.099253848195
          0.98727661371 0.077700354159 -0.13873557746 0.9809974432 0.077206172049 -0.17799794674
          0.97316706181 0.076589912176 -0.21697886288 0.96379798651 0.075852543116 -0.25561669469
          0.95290488005 0.074995242059 -0.2938503325 0.94050502777 0.074019357562 -0.3316193223
          0.92661809921 0.072926424444 -0.36886397004 0.91126596928 0.07171818614 -0.40552535653
          0.89447295666 0.07039655 -0.44154554605 0.87626558542 0.068963594735 -0.47686755657
          0.85667264462 0.067421600223 -0.51143550873 0.83572512865 0.065772995353 -0.54519480467
          0.81345617771 0.064020395279 -0.57809203863 0.78990101814 0.062166556716 -0.61007517576
          0.76509678364 0.060214426368 -0.64109367132 0.73908281326 0.058167081326 -0.67109847069
          0.71190023422 0.056027762592 -0.70004212856 0.68359196186 0.053799852729 -0.72787886858
          0.65420275927 0.051486875862 -0.75456464291 0.62377917767 0.049092486501 -0.78005737066
          0.5923692584 0.046620473266 -0.8043165803 0.56002265215 0.044074740261 -0.82730406523
          0.52679055929 0.04145931825 -0.84898340702 0.49272552133 0.038778342307 -0.869320333
          0.45788136125 0.036036044359 -0.88828265667 0.42231321335 0.033236771822 -0.90584039688
          0.38607728481 0.030384941027 -0.92196589708 0.34923088551 0.027485067025 -0.93663352728
          0.31183227897 0.024541733786 -0.94982016087 0.27394062281 0.021559594199 -0.96150493622
          0.23561578989 0.01854336448 -0.9716693759 0.19691841304 0.015497814864 -0.98029738665
          0.15790966153 0.012427759357 -0.98737537861 0.11865121871 0.0093380538747 -0.99289208651
          0.079205162823 0.0062335818075 -0.99683886766 0.03963387385 0.0031192535535 -0.99920940399
          0.03926704824 0.0062192897312 0.99920940399 0.078472003341 0.012428744696 0.99683886766
          0.11755288392 0.018618548289 0.99289208651 0.15644788742 0.024778911844 0.987375319
          0.19509550929 0.030900094658 0.98029738665 0.23343464732 0.036972418427 0.97166931629
          0.27140468359 0.042986281216 0.96150487661 0.30894556642 0.048932172358 0.94982010126
          0.34599795938 0.054800692946 0.93663346767 0.3825032413 0.060582563281 0.92196583748
          0.4184037149 0.066268637776 0.90584039688 0.45364257693 0.071849927306 0.88828259706
          0.48816418648 0.077317610383 0.8693202734 0.52191388607 0.082663036883 0.84898334742
          0.55483829975 0.087877757847 0.82730400562 0.58688545227 0.092953525484 0.8043165803
          0.61800456047 0.097882315516 0.78005731106 0.64814651012 0.10265632719 0.7545645833
          0.67726361752 0.10726802796 0.72787880898 0.70530986786 0.11171010882 0.70004206896
          0.73224079609 0.11597555131 0.67109841108 0.7580139637 0.12005762011 0.64109361172
          0.7825884819 0.12394984812 0.61007511616 0.80592566729 0.1276460886 0.57809197903
          0.82798844576 0.13114048541 0.54519474506 0.84874200821 0.13442753255 0.51143544912
          0.86815357208 0.13750201464 0.47686746716 0.88619238138 0.14035908878 0.44154545665
          0.90282994509 0.14299422503 0.40552529693 0.91803991795 0.14540325105 0.36886388063
          0.93179833889 0.14758236706 0.33161923289 0.94408333302 0.14952811599 0.29385024309
          0.95487558842 0.15123744309 0.25561660528 0.96415799856 0.15270762146 0.21697877347
          0.9719158411 0.1539363414 0.17799785733 0.97813689709 0.15492166579 0.13873548806
          0.98281127214 0.15566201508 0.099253758788 0.98593169451 0.15615624189 0.059615083039
          0.98749309778 0.15640354156 0.019882144406 0.98749309778 0.15640354156 -0.019882231951
          0.98593169451 0.15615624189 -0.05961516872 0.98281127214 0.15566201508 -0.099253848195
          0.97813683748 0.15492166579 -0.13873557746 0.9719157815 0.1539363414 -0.17799794674
          0.96415793896 0.15270762146 -0.21697886288 0.95487558842 0.15123744309 -0.25561669469
          0.94408333302 0.14952811599 -0.2938503325 0.93179827929 0.14758235216 -0.3316193223
          0.91803991795 0.14540323615 -0.36886397004 0.90282988548 0.14299421012 -0.40552535653
          0.88619232178 0.14035907388 -0.44154554605 0.86815351248 0.13750201464 -0.47686755657
          0.8487419486 0.13442753255 -0.51143550873 0.82798838615 0.13114048541 -0.54519480467
          0.80592560768 0.1276460737 -0.57809203863 0.7825884819 0.12394984066 -0.61007517576
          0.75801390409 0.12005761266 -0.64109367132 0.73224073648 0.11597554386 -0.67109847069
          0.70530974865 0.11171009392 -0.70004212856 0.67726355791 0.10726801306 -0.72787886858
          0.64814645052 0.10265631974 -0.75456464291 0.61800450087 0.097882300615 -0.78005737066
          0.58688539267 0.092953510582 -0.8043165803 0.55483824015 0.087877750397 -0.82730406523
          0.52191376686 0.082663029432 -0.84898340702 0.48816409707 0.077317602932 -0.869320333
          0.45364251733 0.071849919856 -0.88828265667 0.41840362549 0.066268622875 -0.90584039688
          0.38250315189 0.06058254838 -0.92196589708 0.34599786997 0.05480068177 -0.93663352728
          0.30894547701 0.048932161182 -0.94982016087 0.27140459418 0.042986266315 -0.96150493622
          0.23343457282 0.036972403526 -0.9716693759 0.19509543478 0.03090008162 -0.98029738665
          0.15644779801 0.024778898805 -0.98737537861 0.11755279452 0.01861853525 -0.99289208651
          0.078471921384 0.012428731658 -0.99683886766 0.039266962558 0.0062192757614 -0.99920940399
          0.038658041507 0.0092809749767 0.99920940399 0.077254951 0.018547274172 0.99683886766
          0.11572971195 0.027784246951 0.99289208651 0.15402147174 0.036977287382 0.987375319
          0.1920697093 0.046111859381 0.98029738665 0.2298142314 0.055173516273 0.97166931629
          0.26719537377 0.064147934318 0.96150487661 0.30415400863 0.073020920157 0.94982010126
          0.34063175321 0.08177844435 0.93663346767 0.37657085061 0.090406663716 0.92196583748
          0.41191452742 0.098891928792 0.90584039688 0.44660687447 0.10722082853 0.88828259706
          0.48059305549 0.11538019031 0.8693202734 0.51381933689 0.12335710973 0.84898334742
          0.54623311758 0.13113898039 0.82730400562 0.57778322697 0.13871347904 0.8043165803
          0.60841971636 0.14606866241 0.78005731106 0.63809418678 0.15319286287 0.7545645833
          0.66675972939 0.16007484496 0.72787880898 0.69437092543 0.16670371592 0.70004206896
          0.72088420391 0.17306898534 0.67109841108 0.74625760317 0.17916060984 0.64109361172
          0.77045106888 0.18496893346 0.61007511616 0.79342627525 0.19048479199 0.57809197903
          0.81514686346 0.19569945335 0.54519474506 0.83557856083 0.2006046772 0.51143544912
          0.85468906164 0.20519268513 0.47686746716 0.87244808674 0.20945626497 0.44154545665
          0.88882762194 0.21338863671 0.40552529693 0.90380173922 0.21698360145 0.36886388063
          0.91734671593 0.22023546696 0.33161923289 0.92944121361 0.22313910723 0.29385024309
          0.94006609917 0.2256899029 0.25561660528 0.94920450449 0.22788384557 0.21697877347
          0.95684200525 0.22971744835 0.17799785733 0.96296656132 0.23118783534 0.13873548806
          0.96756851673 0.23229265213 0.099253758788 0.97064048052 0.2330301702 0.059615083039
          0.97217768431 0.23339922726 0.019882144406 0.97217768431 0.23339922726 -0.019882231951
          0.97064048052 0.2330301702 -0.05961516872 0.96756851673 0.23229265213 -0.099253848195
          0.96296656132 0.23118782043 -0.13873557746 0.95684200525 0.22971744835 -0.17799794674
          0.94920444489 0.22788384557 -0.21697886288 0.94006603956 0.2256899029 -0.25561669469
          0.92944121361 0.22313909233 -0.2938503325 0.91734671593 0.22023546696 -0.3316193223
          0.90380167961 0.21698358655 -0.36886397004 0.88882756233 0.21338862181 -0.40552535653
          0.87244802713 0.20945625007 -0.44154554605 0.85468900204 0.20519268513 -0.47686755657
          0.83557850122 0.2006046623 -0.51143550873 0.81514680386 0.19569943845 -0.54519480467
          0.79342621565 0.19048477709 -0.57809203863 0.77045100927 0.18496893346 -0.61007517576
          0.74625760317 0.17916059494 -0.64109367132 0.72088414431 0.17306898534 -0.67109847069
          0.69437086582 0.16670370102 -0.70004212856 0.66675966978 0.16007483006 -0.72787886858
          0.63809412718 0.15319284797 -0.75456464291 0.60841965675 0.1460686475 -0.78005737066
          0.57778316736 0.13871346414 -0.8043165803 0.54623305798 0.13113895059 -0.82730406523
          0.51381921768 0.12335708737 -0.84898340702 0.48059299588 0.11538016796 -0.869320333
          0.44660681486 0.10722081363 -0.88828265667 0.41191443801 0.098891913891 -0.90584039688
          0.3765707612 0.090406648815 -0.92196589708 0.3406316638 0.081778429449 -0.93663352728
          0.30415394902 0.073020905256 -0.94982016087 0.26719528437 0.064147911966 -0.96150493622
          0.22981414199 0.055173497647 -0.9716693759 0.19206961989 0.046111837029 -0.98029738665
          0.15402139723 0.03697726503 -0.98737537861 0.11572962999 0.027784226462 -0.99289208651
          0.077254869044 0.018547253683 -0.99683886766 0.038657955825 0.0092809544876 -0.99920940399
          0.037810694426 0.012285439298 0.99920940399 0.075561597943 0.024551453069 0.99683886766
          0.11319302768 0.036778647453 0.99289208651 0.15064547956 0.048947684467 0.987375319
          0.18785972893 0.06103932485 0.98029738665 0.22477692366 0.073034450412 0.97166931629
          0.26133871078 0.0849140957 0.96150487661 0.29748725891 0.096659474075 0.94982010126
          0.33316543698 0.10825201124 0.93663346767 0.3683167696 0.11967337877 0.92196583748
          0.40288576484 0.1309055239 0.90584039688 0.43681767583 0.14193066955 0.88828259706
          0.470058918 0.15273140371 0.8693202734 0.50255692005 0.16329063475 0.84898334742
          0.53426021338 0.17359167337 0.82730400562 0.56511878967 0.18361823261 0.8043165803
          0.59508377314 0.19335444272 0.78005731106 0.62410777807 0.2027849257 0.7545645833
          0.65214496851 0.2118947506 0.72787880898 0.67915099859 0.22066953778 0.70004206896
          0.70508313179 0.22909539938 0.67109841108 0.72990036011 0.23715901375 0.64109361172
          0.75356352329 0.2448476404 0.61007511616 0.77603513002 0.25214910507 0.57809197903
          0.79727965593 0.25905185938 0.54519474506 0.817263484 0.26554501057 0.51143544912
          0.83595508337 0.27161827683 0.47686746716 0.85332489014 0.27726206183 0.44154545665
          0.86934536695 0.28246745467 0.40552529693 0.88399124146 0.2872261703 0.36886388063
          0.89723938704 0.29153075814 0.33161923289 0.90906876326 0.29537436366 0.29385024309
          0.91946071386 0.29875090718 0.25561660528 0.92839884758 0.30165508389 0.21697877347
          0.9358689785 0.30408227444 0.17799785733 0.9418593049 0.30602863431 0.13873548806
          0.94636034966 0.30749112368 0.099253758788 0.9493650198 0.30846738815 0.059615083039
          0.95086854696 0.30895590782 0.019882144406 0.95086854696 0.30895590782 -0.019882231951
          0.9493650198 0.30846738815 -0.05961516872 0.94636034966 0.30749112368 -0.099253848195
          0.9418593049 0.30602863431 -0.13873557746 0.9358689785 0.30408227444 -0.17799794674
          0.92839884758 0.30165508389 -0.21697886288 0.91946071386 0.29875090718 -0.25561669469
          0.90906876326 0.29537436366 -0.2938503325 0.89723932743 0.29153075814 -0.3316193223
          0.88399124146 0.2872261703 -0.36886397004 0.86934536695 0.28246742487 -0.40552535653
          0.85332483053 0.27726206183 -0.44154554605 0.83595508337 0.27161827683 -0.47686755657
          0.8172634244 0.26554501057 -0.51143550873 0.79727959633 0.25905185938 -0.54519480467
          0.77603507042 0.25214907527 -0.57809203863 0.75356346369 0.24484762549 -0.61007517576
          0.72990036011 0.23715899885 -0.64109367132 0.70508307219 0.22909538448 -0.67109847069
          0.67915093899 0.22066952288 -0.70004212856 0.65214490891 0.21189473569 -0.72787886858
          0.62410771847 0.2027848959 -0.75456464291 0.59508371353 0.19335441291 -0.78005737066
          0.56511873007 0.18361820281 -0.8043165803 0.53426015377 0.17359165847 -0.82730406523
          0.50255680084 0.16329061985 -0.84898340702 0.47005885839 0.15273138881 -0.869320333
          0.43681761622 0.14193065464 -0.88828265667 0.40288567543 0.13090549409 -0.90584039688
          0.36831671 0.11967335641 -0.92196589708 0.33316534758 0.10825198889 -0.93663352728
          0.2974871695 0.096659444273 -0.94982016087 0.26133862138 0.084914065897 -0.96150493622
          0.22477684915 0.07303442806 -0.9716693759 0.18785963953 0.061039298773 -0.98029738665
          0.15064539015 0.04894765839 -0.98737537861 0.11319294572 0.03677861765 -0.99289208651
          0.075561515987 0.024551426992 -0.99683886766 0.03781061247 0.012285412289 -0.99920940399
          0.036730229855 0.015214160085 0.99920940399 0.073402382433 0.030404264107 0.99683886766
          0.10995847732 0.045546293259 0.99289208651 0.146340698 0.060616303235 0.987375319
          0.18249152601 0.075590468943 0.98029738665 0.21835379303 0.090445108712 0.97166931629
          0.25387081504 0.10515673459 0.96150487661 0.28898638487 0.11970208585 0.94982010126
          0.32364502549 0.13405816257 0.93663346767 0.35779193044 0.14820227027 0.92196583748
          0.39137306809 0.16211204231 0.90584039688 0.42433536053 0.17576546967 0.88828259706
          0.45662671328 0.18914099038 0.8693202734 0.48819604516 0.20221742988 0.84898334742
          0.51899343729 0.21497412026 0.82730400562 0.54897016287 0.22739090025 0.8043165803
          0.578078866 0.23944813013 0.78005731106 0.60627353191 0.2511267364 0.7545645833
          0.63350957632 0.26240825653 0.72787880898 0.65974384546 0.27327486873 0.70004206896
          0.68493497372 0.28370937705 0.67109841108 0.70904308558 0.29369527102 0.64109361172
          0.73203003407 0.30321675539 0.61007511616 0.75385946035 0.3122588098 0.57809197903
          0.77449691296 0.32080712914 0.54519474506 0.79390972853 0.32884818316 0.51143544912
          0.81206721067 0.33636924624 0.47686746716 0.82894062996 0.34335845709 0.44154545665
          0.84450334311 0.34980475903 0.40552529693 0.85873073339 0.35569790006 0.36886388063
          0.87160027027 0.36102864146 0.33161923289 0.88309162855 0.36578851938 0.29385024309
          0.89318662882 0.36997002363 0.25561660528 0.90186929703 0.37356650829 0.21697877347
          0.90912598372 0.37657231092 0.17799785733 0.91494512558 0.37898269296 0.13873548806
          0.91931754351 0.38079380989 0.099253758788 0.92223632336 0.38200283051 0.059615083039
          0.92369693518 0.38260778785 0.019882144406 0.92369687557 0.38260778785 -0.019882231951
          0.92223632336 0.3820028007 -0.05961516872 0.91931754351 0.38079380989 -0.099253848195
          0.91494512558 0.37898269296 -0.13873557746 0.90912598372 0.37657231092 -0.17799794674
          0.90186929703 0.37356650829 -0.21697886288 0.89318656921 0.36997002363 -0.25561669469
          0.88309156895 0.36578851938 -0.2938503325 0.87160021067 0.36102864146 -0.3316193223
          0.85873067379 0.35569790006 -0.36886397004 0.8445032835 0.34980472922 -0.40552535653
          0.82894057035 0.34335845709 -0.44154554605 0.81206715107 0.33636924624 -0.47686755657
          0.79390966892 0.32884815335 -0.51143550873 0.77449685335 0.32080712914 -0.54519480467
          0.75385940075 0.3122588098 -0.57809203863 0.73202997446 0.30321675539 -0.61007517576
          0.70904302597 0.29369524121 -0.64109367132 0.68493491411 0.28370934725 -0.67109847069
          0.65974378586 0.27327483892 -0.70004212856 0.63350951672 0.26240822673 -0.72787886858
          0.60627347231 0.2511267066 -0.75456464291 0.5780788064 0.23944810033 -0.78005737066
          0.54897010326 0.22739087045 -0.8043165803 0.51899337769 0.21497409046 -0.82730406523
          0.48819598556 0.20221740007 -0.84898340702 0.45662665367 0.18914096057 -0.869320333
          0.42433530092 0.17576543987 -0.88828265667 0.39137300849 0.16211201251 -0.90584039688
          0.35779184103 0.14820224047 -0.92196589708 0.32364496589 0.13405813277 -0.93663352728
          0.28898632526 0.11970205605 -0.94982016087 0.25387072563 0.10515669733 -0.96150493622
          0.21835371852 0.090445071459 -0.9716693759 0.1824914515 0.07559043169 -0.98029738665
          0.1463406235 0.060616269708 -0.98737537861 0.10995839536 0.045546259731 -0.99289208651
          0.073402307928 0.03040423058 -0.99683886766 0.036730151623 0.015214127488 -0.99920940399
          0.035423316061 0.018049081787 0.99920940399 0.070790618658 0.036069624126 0.99683886766
          0.10604599118 0.054033130407 0.99289208651 0.14113368094 0.071911200881 0.987375319
          0.17599819601 0.089675568044 0.98029738665 0.21058444679 0.10729813576 0.97166931629
          0.24483770132 0.1247510463 0.96150487661 0.27870380878 0.14200669527 0.94982010126
          0.31212925911 0.15903779864 0.93663346767 0.34506115317 0.17581744492 0.92196583748
          0.37744742632 0.19231908023 0.90584039688 0.40923687816 0.20851661265 0.88828259706
          0.44037926197 0.22438444197 0.8693202734 0.47082531452 0.23989747465 0.84898334742
          0.50052684546 0.25503119826 0.82730400562 0.52943700552 0.26976162195 0.8043165803
          0.55750995874 0.28406554461 0.78005731106 0.58470141888 0.29792025685 0.7545645833
          0.61096835136 0.3113039434 0.72787880898 0.63626921177 0.32419535518 0.70004206896
          0.66056394577 0.33657416701 0.67109841108 0.68381422758 0.34842076898 0.64109361172
          0.70598328114 0.35971647501 0.61007511616 0.7270359993 0.37044337392 0.57809197903
          0.74693918228 0.38058450818 0.54519474506 0.76566123962 0.39012390375 0.51143544912
          0.78317260742 0.39904639125 0.47686746716 0.79944568872 0.40733793378 0.44154545665
          0.81445467472 0.41498538852 0.40552529693 0.82817578316 0.42197665572 0.36886388063
          0.84058743715 0.42830067873 0.33161923289 0.85166990757 0.43394750357 0.29385024309
          0.86140573025 0.43890815973 0.25561660528 0.86977946758 0.44317477942 0.21697877347
          0.87677794695 0.44674068689 0.17799785733 0.88239002228 0.44960018992 0.13873548806
          0.88660687208 0.45174878836 0.099253758788 0.88942182064 0.45318305492 0.059615083039
          0.89083039761 0.45390078425 0.019882144406 0.89083039761 0.45390078425 -0.019882231951
          0.88942182064 0.45318305492 -0.05961516872 0.88660687208 0.45174875855 -0.099253848195
          0.88239002228 0.44960018992 -0.13873557746 0.87677788734 0.44674068689 -0.17799794674
          0.86977946758 0.44317477942 -0.21697886288 0.86140567064 0.43890812993 -0.25561669469
          0.85166984797 0.43394747376 -0.2938503325 0.84058737755 0.42830067873 -0.3316193223
          0.82817578316 0.42197662592 -0.36886397004 0.81445461512 0.41498535872 -0.40552535653
          0.79944562912 0.40733790398 -0.44154554605 0.78317260742 0.39904639125 -0.47686755657
          0.76566118002 0.39012387395 -0.51143550873 0.74693912268 0.38058450818 -0.54519480467
          0.7270359993 0.37044334412 -0.57809203863 0.70598322153 0.35971644521 -0.61007517576
          0.68381422758 0.34842073917 -0.64109367132 0.66056388617 0.33657413721 -0.67109847069
          0.63626915216 0.32419532537 -0.70004212856 0.61096829176 0.31130391359 -0.72787886858
          0.58470135927 0.29792022705 -0.75456464291 0.55750989914 0.2840655148 -0.78005737066
          0.52943694592 0.26976159215 -0.8043165803 0.50052678585 0.25503116846 -0.82730406523
          0.47082522511 0.23989744484 -0.84898340702 0.44037920237 0.22438441217 -0.869320333
          0.40923681855 0.20851658285 -0.88828265667 0.37744736671 0.19231903553 -0.90584039688
          0.34506106377 0.17581740022 -0.92196589708 0.3121291697 0.15903776884 -0.93663352728
          0.27870374918 0.14200665057 -0.94982016087 0.24483762681 0.12475100905 -0.96150493622
          0.21058437228 0.1072980985 -0.9716693759 0.1759981215 0.089675530791 -0.98029738665
          0.14113360643 0.071911163628 -0.98737537861 0.10604590923 0.054033093154 -0.99289208651
          0.070790544152 0.036069583148 -0.99683886766 0.03542323783 0.018049040809 -0.99920940399
          0.033898003399 0.020772723481 0.99920940399 0.067742407322 0.041512601078 0.99683886766
          0.10147969425 0.062186837196 0.99289208651 0.13505652547 0.082762748003 0.987375319
          0.16841979325 0.10320778936 0.98029738665 0.20151676238 0.1234896332 0.97166931629
          0.23429509997 0.14357621968 0.96150487661 0.26670295 0.16343578696 0.94982010126
          0.29868909717 0.18303692341 0.93663346767 0.33020296693 0.2023486495 0.92196583748
          0.3611947 0.22134040296 0.90584039688 0.39161533117 0.23998218775 0.88828259706
          0.42141672969 0.25824451447 0.8693202734 0.45055177808 0.27609848976 0.84898334742
          0.47897440195 0.29351589084 0.82730400562 0.5066396594 0.31046921015 0.8043165803
          0.53350383043 0.3269315958 0.78005731106 0.55952441692 0.34287703037 0.7545645833
          0.58466029167 0.35828030109 0.72787880898 0.60887169838 0.37311708927 0.70004206896
          0.63212037086 0.38736388087 0.67109841108 0.65436947346 0.40099817514 0.64109361172
          0.67558395863 0.4139983952 0.61007511616 0.69573014975 0.42634400725 0.57809197903
          0.71477627754 0.43801549077 0.54519474506 0.73269218206 0.44899436831 0.51143544912
          0.74944955111 0.45926329494 0.47686746716 0.7650219202 0.46880602837 0.44154545665
          0.77938455343 0.47760748863 0.40552529693 0.79251486063 0.48565375805 0.36886388063
          0.80439209938 0.49293211102 0.33161923289 0.81499737501 0.49943104386 0.29385024309
          0.82431393862 0.50514024496 0.25561660528 0.83232712746 0.51005071402 0.21697877347
          0.83902424574 0.51415473223 0.17799785733 0.84439468384 0.51744574308 0.13873548806
          0.84842997789 0.51991856098 0.099253758788 0.85112369061 0.52156931162 0.059615083039
          0.85247159004 0.52239531279 0.019882144406 0.85247159004 0.52239531279 -0.019882231951
          0.85112369061 0.52156925201 -0.05961516872 0.84842991829 0.51991856098 -0.099253848195
          0.84439468384 0.51744574308 -0.13873557746 0.83902424574 0.51415473223 -0.17799794674
          0.83232712746 0.51005071402 -0.21697886288 0.82431393862 0.50514024496 -0.25561669469
          0.81499731541 0.49943101406 -0.2938503325 0.80439203978 0.49293211102 -0.3316193223
          0.79251486063 0.48565375805 -0.36886397004 0.77938455343 0.47760748863 -0.40552535653
          0.7650218606 0.46880602837 -0.44154554605 0.7494494915 0.45926326513 -0.47686755657
          0.73269212246 0.44899433851 -0.51143550873 0.71477621794 0.43801546097 -0.54519480467
          0.69573009014 0.42634397745 -0.57809203863 0.67558389902 0.4139983654 -0.61007517576
          0.65436947346 0.40099814534 -0.64109367132 0.63212031126 0.38736385107 -0.67109847069
          0.60887163877 0.37311705947 -0.70004212856 0.58466023207 0.35828027129 -0.72787886858
          0.55952435732 0.34287700057 -0.75456464291 0.53350377083 0.326931566 -0.78005737066
          0.5066395998 0.31046915054 -0.8043165803 0.47897434235 0.29351586103 -0.82730406523
          0.45055168867 0.27609845996 -0.84898340702 0.42141664028 0.25824445486 -0.869320333
          0.39161524177 0.23998214304 -0.88828265667 0.3611946404 0.22134037316 -0.90584039688
          0.33020290732 0.2023486048 -0.92196589708 0.29868903756 0.18303687871 -0.93663352728
          0.2667028904 0.16343574226 -0.94982016087 0.23429502547 0.14357617497 -0.96150493622
          0.20151668787 0.1234895885 -0.9716693759 0.16841971874 0.10320774466 -0.98029738665
          0.13505645096 0.0827627033 -0.98737537861 0.10147961974 0.062186792493 -0.99289208651
          0.067742332816 0.041512556374 -0.99683886766 0.033897928894 0.020772676915 -0.99920940399
          0.032163698226 0.023368295282 0.99920940399 0.064276538789 0.04669963941 0.99683886766
          0.096287742257 0.069957144558 0.99289208651 0.12814669311 0.093104027212 0.987375319
          0.15980301797 0.11610369384 0.98029738665 0.19120666385 0.13891978562 0.97166931629
          0.22230798006 0.16151620448 0.96150487661 0.25305777788 0.18385724723 0.94982010126
          0.28340741992 0.20590755343 0.93663346767 0.31330895424 0.22763229907 0.92196583748